file 28784862 1714651856                                        
version 2
run General-0-20240502-13:13:46-1196
attr configname General
attr datetime 20240502-13:13:46
attr datetimef 20240502-131346
attr experiment General
attr inifile omnetpp.ini
attr iterationvars ""
attr iterationvarsd ""
attr iterationvarsf ""
attr measurement ""
attr network RSVPTE4
attr processid 1196
attr repetition 0
attr replication #0
attr resultdir results
attr runnumber 0
attr seedset 0
config debug-on-errors true
config image-path ../../../images
config network RSVPTE4
config sim-time-limit 50s
config total-stack 60MiB
config **.host{1..2,5}.numApps 1
config **.host{1..2,5}.app[*].typename UdpBasicApp
config **.host{1..2,5}.app[0].localPort 100
config **.host{1..2,5}.app[0].destPort 100
config **.host{1..2,5}.app[0].messageLength "128 bytes"
config **.host{1..2,5}.app[0].sendInterval 0.01s
config **.host{1..2,5}.app[0].destAddresses "\"host3\""
config **.host3.numApps 1
config **.host3.app[0].typename UdpSink
config **.host3.app[0].localPort 100
config **.host1.ipv4.routingTable.routingFile "\"host1.rt\""
config **.host2.ipv4.routingTable.routingFile "\"host2.rt\""
config **.host3.ipv4.routingTable.routingFile "\"host3.rt\""
config **.host4.ipv4.routingTable.routingFile "\"host4.rt\""
config **.host5.ipv4.routingTable.routingFile "\"host5.rt\""
config **.LSR1.classifier.config "xmldoc(\"LSR1_fec.xml\")"
config **.LSR1.rsvp.traffic "xmldoc(\"LSR1_rsvp.xml\")"
config **.LSR*.rsvp.helloInterval 0.2s
config **.LSR*.rsvp.helloTimeout 0.5s
config **.LSR1.ipv4.routingTable.routingFile "\"LSR1.rt\""
config **.LSR2.ipv4.routingTable.routingFile "\"LSR2.rt\""
config **.LSR3.ipv4.routingTable.routingFile "\"LSR3.rt\""
config **.LSR4.ipv4.routingTable.routingFile "\"LSR4.rt\""
config **.LSR5.ipv4.routingTable.routingFile "\"LSR5.rt\""
config **.LSR6.ipv4.routingTable.routingFile "\"LSR6.rt\""
config **.LSR7.ipv4.routingTable.routingFile "\"LSR7.rt\""
config **.ppp[*].queue.typename DropTailQueue
config **.ppp[*].queue.packetCapacity 10
config **.scenarioManager.script "xml(\"<scenario/>\")"

vector 0 RSVPTE4.LSR1.ppp[0].queue queueLength:vector ETV
attr autoWarmupFilter false
attr interpolationmode sample-hold
attr recordingmode vector
attr source "warmup(atomic(constant0(packetPushEnded) + count(packetPushStarted) - count(packetPulled) - count(packetRemoved) - count(packetDropped)))"
attr title "queue length"
attr unit pk
0	82580 8156 0 32178 0 2.992173333333 322 0 10 372 2062
0	1825049 285 32260 32993 3.001137959627 3.082173333333 11 0 1 1 1
0	1871849 26 33080 33080 3.092173333333 3.092173333333 1 0 0 0 0
0	1877832 26 33168 33168 3.102173333333 3.102173333333 1 0 0 0 0
0	1881107 78186 33267 266744 3.112173333333 28.672173333333 2858 0 2 178 188
0	16338480 66430 266849 461502 28.682173333333 49.992173333333 2380 0 2 146 154
vector 1 RSVPTE4.LSR1.ppp[0].queue queueBitLength:vector ETV
attr autoWarmupFilter false
attr interpolationmode sample-hold
attr recordingmode vector
attr source "warmup(atomic(constant0(packetPushEnded) + sum(packetLength(packetPushStarted)) - sum(packetLength(packetPulled)) - sum(packetLength(packetRemoved)) - sum(packetLength(packetDropped))))"
attr title "queue bit length"
attr unit b
1	90736 8505 0 32178 0 2.992173333333 322 0 16768 439056 3368914432
1	1825334 288 32260 32993 3.001137959627 3.082173333333 11 0 1280 1280 1638400
1	1871875 26 33080 33080 3.092173333333 3.092173333333 1 0 0 0 0
1	1877858 26 33168 33168 3.102173333333 3.102173333333 1 0 0 0 0
1	1959293 78695 33267 266744 3.112173333333 28.672173333333 2858 0 1448 215120 274099840
1	16404910 66848 266849 461502 28.682173333333 49.992173333333 2380 0 1448 176704 225178112
vector 2 RSVPTE4.LSR1.ppp[0].ppp transmissionState:vector ETV
attr interpolationmode sample-hold
attr recordingmode vector
attr source transmissionStateChanged
attr title "tx state"
2	99241 11396 0 32178 0 2.992173333333 486 0 1 243 243
2	1825622 462 32256 32993 3.00108 3.082173333333 20 0 1 10 10
2	1871901 45 33061 33080 3.09108 3.092173333333 2 0 1 1 1
2	1877884 45 33149 33168 3.10108 3.102173333333 2 0 1 1 1
2	2037988 130509 33248 266744 3.11108 28.672173333333 5380 0 1 2690 2690
2	16471758 111250 266826 461502 28.68108 49.992173333333 4484 0 1 2242 2242
vector 3 RSVPTE4.LSR1.ppp[1].queue queueLength:vector ETV
attr autoWarmupFilter false
attr interpolationmode sample-hold
attr recordingmode vector
attr source "warmup(atomic(constant0(packetPushEnded) + count(packetPushStarted) - count(packetPulled) - count(packetRemoved) - count(packetDropped)))"
attr title "queue length"
attr unit pk
3	110637 27395 0 32196 0 2.9944 1131 0 3 640 878
3	1826084 630 32286 33011 3.002173333333 3.0844 27 0 1 9 9
3	1871946 70 33082 33098 3.092173333333 3.0944 3 0 1 1 1
3	1877929 52 33170 33172 3.102173333333 3.102173333333 2 0 1 1 1
3	2168497 197167 33188 266748 3.1044 28.672173333333 7932 0 1 2685 2685
3	16583008 168104 266770 461520 28.6744 49.9944 6615 0 1 2239 2239
vector 4 RSVPTE4.LSR1.ppp[1].queue queueBitLength:vector ETV
attr autoWarmupFilter false
attr interpolationmode sample-hold
attr recordingmode vector
attr source "warmup(atomic(constant0(packetPushEnded) + sum(packetLength(packetPushStarted)) - sum(packetLength(packetPulled)) - sum(packetLength(packetRemoved)) - sum(packetLength(packetDropped))))"
attr title "queue bit length"
attr unit b
4	138032 28950 0 32196 0 2.9944 1131 0 3744 772968 1303675200
4	1826714 657 32286 33011 3.002173333333 3.0844 27 0 1248 11232 14017536
4	1872016 73 33082 33098 3.092173333333 3.0944 3 0 1248 1248 1557504
4	1877981 55 33170 33172 3.102173333333 3.102173333333 2 0 1248 1248 1557504
4	2365664 205094 33188 266748 3.1044 28.672173333333 7932 0 1248 3212640 3986150400
4	16751112 174714 266770 461520 28.6744 49.9944 6615 0 1248 2678712 3323618496
vector 5 RSVPTE4.LSR1.ppp[1].ppp transmissionState:vector ETV
attr interpolationmode sample-hold
attr recordingmode vector
attr source transmissionStateChanged
attr title "tx state"
5	166982 33484 0 32220 0 2.996573333333 1425 0 1 712 712
5	1827371 792 32286 33030 3.002173333333 3.086573333333 36 0 1 18 18
5	1872089 62 33082 33098 3.092173333333 3.0944 3 0 1 2 2
5	1875930 26 33113 33113 3.096573333333 3.096573333333 1 0 0 0 0
5	1878036 26 33170 33170 3.102173333333 3.102173333333 1 1 1 1 1
5	2570758 247021 33188 266746 3.1044 28.672173333333 10494 0 1 5247 5247
5	16925826 210904 266770 461544 28.6744 49.996573333333 8753 0 1 4376 4376
vector 6 RSVPTE4.LSR1.ppp[2].queue queueLength:vector ETV
attr autoWarmupFilter false
attr interpolationmode sample-hold
attr recordingmode vector
attr source "warmup(atomic(constant0(packetPushEnded) + count(packetPushStarted) - count(packetPulled) - count(packetRemoved) - count(packetDropped)))"
attr title "queue length"
attr unit pk
6	200466 141 0 836 0 0.052173333333 9 0 0 0 0
vector 7 RSVPTE4.LSR1.ppp[2].queue queueBitLength:vector ETV
attr autoWarmupFilter false
attr interpolationmode sample-hold
attr recordingmode vector
attr source "warmup(atomic(constant0(packetPushEnded) + sum(packetLength(packetPushStarted)) - sum(packetLength(packetPulled)) - sum(packetLength(packetRemoved)) - sum(packetLength(packetDropped))))"
attr title "queue bit length"
attr unit b
7	200607 141 0 836 0 0.052173333333 9 0 0 0 0
vector 8 RSVPTE4.LSR1.ppp[2].ppp transmissionState:vector ETV
attr interpolationmode sample-hold
attr recordingmode vector
attr source transmissionStateChanged
attr title "tx state"
8	200748 201 0 851 0 0.053013333333 9 0 1 4 4
vector 9 RSVPTE4.LSR1.ppp[3].queue queueLength:vector ETV
attr autoWarmupFilter false
attr interpolationmode sample-hold
attr recordingmode vector
attr source "warmup(atomic(constant0(packetPushEnded) + count(packetPushStarted) - count(packetPulled) - count(packetRemoved) - count(packetDropped)))"
attr title "queue length"
attr unit pk
9	200949 141 0 835 0 0.052173333333 9 0 0 0 0
vector 10 RSVPTE4.LSR1.ppp[3].queue queueBitLength:vector ETV
attr autoWarmupFilter false
attr interpolationmode sample-hold
attr recordingmode vector
attr source "warmup(atomic(constant0(packetPushEnded) + sum(packetLength(packetPushStarted)) - sum(packetLength(packetPulled)) - sum(packetLength(packetRemoved)) - sum(packetLength(packetDropped))))"
attr title "queue bit length"
attr unit b
10	201090 150 0 835 0 0.052173333333 9 0 0 0 0
vector 11 RSVPTE4.LSR1.ppp[3].ppp transmissionState:vector ETV
attr interpolationmode sample-hold
attr recordingmode vector
attr source transmissionStateChanged
attr title "tx state"
11	201240 210 0 850 0 0.053013333333 9 0 1 4 4
vector 12 RSVPTE4.LSR1.ppp[4].queue queueLength:vector ETV
attr autoWarmupFilter false
attr interpolationmode sample-hold
attr recordingmode vector
attr source "warmup(atomic(constant0(packetPushEnded) + count(packetPushStarted) - count(packetPulled) - count(packetRemoved) - count(packetDropped)))"
attr title "queue length"
attr unit pk
12	201450 150 0 837 0 0.052173333333 9 0 0 0 0
vector 13 RSVPTE4.LSR1.ppp[4].queue queueBitLength:vector ETV
attr autoWarmupFilter false
attr interpolationmode sample-hold
attr recordingmode vector
attr source "warmup(atomic(constant0(packetPushEnded) + sum(packetLength(packetPushStarted)) - sum(packetLength(packetPulled)) - sum(packetLength(packetRemoved)) - sum(packetLength(packetDropped))))"
attr title "queue bit length"
attr unit b
13	201600 150 0 837 0 0.052173333333 9 0 0 0 0
vector 14 RSVPTE4.LSR1.ppp[4].ppp transmissionState:vector ETV
attr interpolationmode sample-hold
attr recordingmode vector
attr source transmissionStateChanged
attr title "tx state"
14	201750 210 0 852 0 0.053013333333 9 0 1 4 4
vector 15 RSVPTE4.LSR2.ppp[0].queue queueLength:vector ETV
attr autoWarmupFilter false
attr interpolationmode sample-hold
attr recordingmode vector
attr source "warmup(atomic(constant0(packetPushEnded) + count(packetPushStarted) - count(packetPulled) - count(packetRemoved) - count(packetDropped)))"
attr title "queue length"
attr unit pk
15	201960 2108 0 32219 0 2.99620541103 86 0 10 278 1934
15	2817779 3655 34043 266075 3.19620541103 28.59620541103 133 0 0 0 0
15	17136730 3112 267897 461543 28.79620541103 49.99620541103 111 0 0 0 0
vector 16 RSVPTE4.LSR2.ppp[0].queue queueBitLength:vector ETV
attr autoWarmupFilter false
attr interpolationmode sample-hold
attr recordingmode vector
attr source "warmup(atomic(constant0(packetPushEnded) + sum(packetLength(packetPushStarted)) - sum(packetLength(packetPulled)) - sum(packetLength(packetRemoved)) - sum(packetLength(packetDropped))))"
attr title "queue bit length"
attr unit b
16	204068 2263 0 32219 0 2.99620541103 86 0 21696 389208 4927634880
16	2821434 3655 34043 266075 3.19620541103 28.59620541103 133 0 0 0 0
16	17139842 3112 267897 461543 28.79620541103 49.99620541103 111 0 0 0 0
vector 17 RSVPTE4.LSR2.ppp[0].ppp transmissionState:vector ETV
attr interpolationmode sample-hold
attr recordingmode vector
attr source transmissionStateChanged
attr title "tx state"
17	206331 2450 0 32221 0 2.997698744363 97 0 1 48 48
17	2825089 7438 34043 266077 3.19620541103 28.597698744363 266 0 1 133 133
17	17142954 6331 267897 461545 28.79620541103 49.997698744363 222 0 1 111 111
vector 18 RSVPTE4.LSR2.ppp[1].queue queueLength:vector ETV
attr autoWarmupFilter false
attr interpolationmode sample-hold
attr recordingmode vector
attr source "warmup(atomic(constant0(packetPushEnded) + count(packetPushStarted) - count(packetPulled) - count(packetRemoved) - count(packetDropped)))"
attr title "queue length"
attr unit pk
18	208781 4983 0 32215 0 2.99608 230 0 2 7 9
18	1828163 187 32317 33029 3.00608 3.08608 9 0 0 0 0
18	1875956 20 33112 33112 3.09608 3.09608 1 0 0 0 0
18	2832527 59558 33202 266688 3.10608 28.66608 2690 0 0 0 0
18	17149285 50920 266789 461539 28.67608 49.99608 2244 0 0 0 0
vector 19 RSVPTE4.LSR2.ppp[1].queue queueBitLength:vector ETV
attr autoWarmupFilter false
attr interpolationmode sample-hold
attr recordingmode vector
attr source "warmup(atomic(constant0(packetPushEnded) + sum(packetLength(packetPushStarted)) - sum(packetLength(packetPulled)) - sum(packetLength(packetRemoved)) - sum(packetLength(packetDropped))))"
attr title "queue bit length"
attr unit b
19	213764 4998 0 32215 0 2.99608 230 0 4928 11496 40193600
19	1828350 187 32317 33029 3.00608 3.08608 9 0 0 0 0
19	1875976 20 33112 33112 3.09608 3.09608 1 0 0 0 0
19	2892085 59558 33202 266688 3.10608 28.66608 2690 0 0 0 0
19	17200205 50920 266789 461539 28.67608 49.99608 2244 0 0 0 0
vector 20 RSVPTE4.LSR2.ppp[1].ppp transmissionState:vector ETV
attr interpolationmode sample-hold
attr recordingmode vector
attr source transmissionStateChanged
attr title "tx state"
20	218762 10717 0 32227 0 2.998306666667 441 0 1 220 220
20	1828537 403 32317 33029 3.00608 3.08608 17 0 1 9 9
20	1872151 27 33036 33036 3.088306666667 3.088306666667 1 0 0 0 0
20	1875996 47 33112 33124 3.09608 3.098306666667 2 0 1 1 1
20	2951643 135997 33202 266695 3.10608 28.668306666667 5380 0 1 2690 2690
20	17251125 115936 266789 461551 28.67608 49.998306666667 4488 0 1 2244 2244
vector 21 RSVPTE4.LSR2.ppp[2].queue queueLength:vector ETV
attr autoWarmupFilter false
attr interpolationmode sample-hold
attr recordingmode vector
attr source "warmup(atomic(constant0(packetPushEnded) + count(packetPushStarted) - count(packetPulled) - count(packetRemoved) - count(packetDropped)))"
attr title "queue length"
attr unit pk
21	229479 1457 0 31865 0 2.957440227996 60 0 2 12 16
21	3087640 3640 33689 265721 3.157440227996 28.557440227996 128 0 0 0 0
21	17367061 3103 267543 461189 28.757440227996 49.957440227996 107 0 0 0 0
vector 22 RSVPTE4.LSR2.ppp[2].queue queueBitLength:vector ETV
attr autoWarmupFilter false
attr interpolationmode sample-hold
attr recordingmode vector
attr source "warmup(atomic(constant0(packetPushEnded) + sum(packetLength(packetPushStarted)) - sum(packetLength(packetPulled)) - sum(packetLength(packetRemoved)) - sum(packetLength(packetDropped))))"
attr title "queue bit length"
attr unit b
22	230936 1483 0 31865 0 2.957440227996 60 0 7808 27848 131684928
22	3091280 3640 33689 265721 3.157440227996 28.557440227996 128 0 0 0 0
22	17370164 3103 267543 461189 28.757440227996 49.957440227996 107 0 0 0 0
vector 23 RSVPTE4.LSR2.ppp[2].ppp transmissionState:vector ETV
attr interpolationmode sample-hold
attr recordingmode vector
attr source transmissionStateChanged
attr title "tx state"
23	232419 2437 0 31866 0 2.957813561329 95 0 1 47 47
23	3094920 7280 33689 265722 3.157440227996 28.557813561329 256 0 1 128 128
23	17373267 6206 267543 461190 28.757440227996 49.957813561329 214 0 1 107 107
vector 24 RSVPTE4.LSR3.ppp[0].queue queueLength:vector ETV
attr autoWarmupFilter false
attr interpolationmode sample-hold
attr recordingmode vector
attr source "warmup(atomic(constant0(packetPushEnded) + count(packetPushStarted) - count(packetPulled) - count(packetRemoved) - count(packetDropped)))"
attr title "queue length"
attr unit pk
24	234856 1461 0 31418 0 2.910209697334 60 0 4 26 64
24	3102200 3783 33242 265274 3.110209697334 28.510209697334 133 0 0 0 0
24	17379473 3219 267096 460742 28.710209697334 49.910209697334 111 0 0 0 0
vector 25 RSVPTE4.LSR3.ppp[0].queue queueBitLength:vector ETV
attr autoWarmupFilter false
attr interpolationmode sample-hold
attr recordingmode vector
attr source "warmup(atomic(constant0(packetPushEnded) + sum(packetLength(packetPushStarted)) - sum(packetLength(packetPulled)) - sum(packetLength(packetRemoved)) - sum(packetLength(packetDropped))))"
attr title "queue bit length"
attr unit b
25	236317 1497 0 31418 0 2.910209697334 60 0 10848 56688 388687488
25	3105983 3783 33242 265274 3.110209697334 28.510209697334 133 0 0 0 0
25	17382692 3219 267096 460742 28.710209697334 49.910209697334 111 0 0 0 0
vector 26 RSVPTE4.LSR3.ppp[0].ppp transmissionState:vector ETV
attr interpolationmode sample-hold
attr recordingmode vector
attr source transmissionStateChanged
attr title "tx state"
26	237814 2429 0 31422 0 2.910583030667 95 0 1 47 47
26	3109766 7566 33242 265278 3.110209697334 28.510583030667 266 0 1 133 133
26	17385911 6438 267096 460746 28.710209697334 49.910583030667 222 0 1 111 111
vector 27 RSVPTE4.LSR3.ppp[1].queue queueLength:vector ETV
attr autoWarmupFilter false
attr interpolationmode sample-hold
attr recordingmode vector
attr source "warmup(atomic(constant0(packetPushEnded) + count(packetPushStarted) - count(packetPulled) - count(packetRemoved) - count(packetDropped)))"
attr title "queue length"
attr unit pk
27	240243 14520 0 32200 0 2.995401285279 550 0 2 30 40
27	1828940 243 32269 32979 3.001573333333 3.081573333333 9 0 0 0 0
27	1872178 27 33066 33066 3.091573333333 3.091573333333 1 0 0 0 0
27	1878062 27 33154 33154 3.101573333333 3.101573333333 1 0 0 0 0
27	3117332 76372 33253 266730 3.111573333333 28.671573333333 2685 0 0 0 0
27	17392349 64931 266835 461524 28.681573333333 49.995401285279 2239 0 0 0 0
vector 28 RSVPTE4.LSR3.ppp[1].queue queueBitLength:vector ETV
attr autoWarmupFilter false
attr interpolationmode sample-hold
attr recordingmode vector
attr source "warmup(atomic(constant0(packetPushEnded) + sum(packetLength(packetPushStarted)) - sum(packetLength(packetPulled)) - sum(packetLength(packetRemoved)) - sum(packetLength(packetDropped))))"
attr title "queue bit length"
attr unit b
28	254763 14583 0 32200 0 2.995401285279 550 0 9536 45352 225051456
28	1829183 243 32269 32979 3.001573333333 3.081573333333 9 0 0 0 0
28	1872205 27 33066 33066 3.091573333333 3.091573333333 1 0 0 0 0
28	1878089 27 33154 33154 3.101573333333 3.101573333333 1 0 0 0 0
28	3193704 76372 33253 266730 3.111573333333 28.671573333333 2685 0 0 0 0
28	17457280 64931 266835 461524 28.681573333333 49.995401285279 2239 0 0 0 0
vector 29 RSVPTE4.LSR3.ppp[1].ppp transmissionState:vector ETV
attr interpolationmode sample-hold
attr recordingmode vector
attr source transmissionStateChanged
attr title "tx state"
29	269346 27919 0 32202 0 2.995774618612 1051 0 1 525 525
29	1829426 486 32269 33006 3.001573333333 3.083746666666 18 0 1 9 9
29	1872232 54 33066 33093 3.091573333333 3.093746666666 2 0 1 1 1
29	1878116 54 33154 33183 3.101573333333 3.103746666666 2 0 1 1 1
29	3270076 152716 33253 266730 3.111573333333 28.671573333333 5369 0 1 2685 2685
29	17522211 129891 266757 461526 28.673746666666 49.995774618612 4479 0 1 2239 2239
vector 30 RSVPTE4.LSR3.ppp[2].queue queueLength:vector ETV
attr autoWarmupFilter false
attr interpolationmode sample-hold
attr recordingmode vector
attr source "warmup(atomic(constant0(packetPushEnded) + count(packetPushStarted) - count(packetPulled) - count(packetRemoved) - count(packetDropped)))"
attr title "queue length"
attr unit pk
30	297265 5248 0 32235 0 2.9994 257 0 3 24 50
30	1829912 152 32336 32953 3.0094 3.0794 8 0 0 0 0
30	1872286 19 33044 33044 3.0894 3.0894 1 0 0 0 0
30	1876043 19 33132 33132 3.0994 3.0994 1 0 0 0 0
30	3422792 56058 33226 266703 3.1094 28.6694 2690 0 0 0 0
30	17652102 48012 266809 461559 28.6794 49.9994 2244 0 0 0 0
vector 31 RSVPTE4.LSR3.ppp[2].queue queueBitLength:vector ETV
attr autoWarmupFilter false
attr interpolationmode sample-hold
attr recordingmode vector
attr source "warmup(atomic(constant0(packetPushEnded) + sum(packetLength(packetPushStarted)) - sum(packetLength(packetPulled)) - sum(packetLength(packetRemoved)) - sum(packetLength(packetDropped))))"
attr title "queue bit length"
attr unit b
31	302513 5289 0 32235 0 2.9994 257 0 17184 79880 887308864
31	1830064 152 32336 32953 3.0094 3.0794 8 0 0 0 0
31	1872305 19 33044 33044 3.0894 3.0894 1 0 0 0 0
31	1876062 19 33132 33132 3.0994 3.0994 1 0 0 0 0
31	3478850 56058 33226 266703 3.1094 28.6694 2690 0 0 0 0
31	17700114 48012 266809 461559 28.6794 49.9994 2244 0 0 0 0
vector 32 RSVPTE4.LSR3.ppp[2].ppp transmissionState:vector ETV
attr interpolationmode sample-hold
attr recordingmode vector
attr source transmissionStateChanged
attr title "tx state"
32	307802 11410 0 32235 0 2.9994 484 0 1 242 242
32	1830216 395 32272 32981 3.001626666667 3.081626666667 17 0 1 8 8
32	1872324 46 33044 33068 3.0894 3.091626666667 2 0 1 1 1
32	1876081 19 33132 33132 3.0994 3.0994 1 1 1 1 1
32	1878170 27 33156 33156 3.101626666667 3.101626666667 1 0 0 0 0
32	3534908 132538 33226 266732 3.1094 28.671626666667 5380 0 1 2690 2690
32	17748126 113031 266809 461559 28.6794 49.9994 4487 0 1 2244 2244
vector 33 RSVPTE4.LSR4.ppp[0].queue queueLength:vector ETV
attr autoWarmupFilter false
attr interpolationmode sample-hold
attr recordingmode vector
attr source "warmup(atomic(constant0(packetPushEnded) + count(packetPushStarted) - count(packetPulled) - count(packetRemoved) - count(packetDropped)))"
attr title "queue length"
attr unit pk
33	319212 1320 0 31465 0 2.915103839377 54 0 3 17 35
33	3667446 3743 33289 265321 3.115103839377 28.515103839377 133 0 0 0 0
33	17861157 3187 267143 460789 28.715103839377 49.915103839377 111 0 0 0 0
vector 34 RSVPTE4.LSR4.ppp[0].queue queueBitLength:vector ETV
attr autoWarmupFilter false
attr interpolationmode sample-hold
attr recordingmode vector
attr source "warmup(atomic(constant0(packetPushEnded) + sum(packetLength(packetPushStarted)) - sum(packetLength(packetPulled)) - sum(packetLength(packetRemoved)) - sum(packetLength(packetDropped))))"
attr title "queue bit length"
attr unit b
34	320532 1351 0 31465 0 2.915103839377 54 0 15456 64408 822783552
34	3671189 3743 33289 265321 3.115103839377 28.515103839377 133 0 0 0 0
34	17864344 3187 267143 460789 28.715103839377 49.915103839377 111 0 0 0 0
vector 35 RSVPTE4.LSR4.ppp[0].ppp transmissionState:vector ETV
attr interpolationmode sample-hold
attr recordingmode vector
attr source transmissionStateChanged
attr title "tx state"
35	321883 2178 0 31466 0 2.91547717271 85 0 1 42 42
35	3674932 7398 33289 265322 3.115103839377 28.51547717271 266 0 1 133 133
35	17867531 6299 267143 460790 28.715103839377 49.91547717271 222 0 1 111 111
vector 36 RSVPTE4.LSR4.ppp[1].queue queueLength:vector ETV
attr autoWarmupFilter false
attr interpolationmode sample-hold
attr recordingmode vector
attr source "warmup(atomic(constant0(packetPushEnded) + count(packetPushStarted) - count(packetPulled) - count(packetRemoved) - count(packetDropped)))"
attr title "queue length"
attr unit pk
36	324061 21038 0 32232 0 2.998746666666 793 0 2 78 96
36	1830611 513 32297 33005 3.003306666667 3.083306666667 19 0 1 1 1
36	1872370 54 33041 33092 3.088746666666 3.093306666667 2 0 0 0 0
36	1876100 27 33129 33129 3.098746666666 3.098746666666 1 0 0 0 0
36	1878197 27 33182 33182 3.103306666667 3.103306666667 1 0 0 0 0
36	3682330 153467 33223 266723 3.108746666666 28.670919999999 5399 0 1 153 153
36	17873830 130470 266756 461556 28.673306666667 49.998746666666 4502 0 1 126 126
vector 37 RSVPTE4.LSR4.ppp[1].queue queueBitLength:vector ETV
attr autoWarmupFilter false
attr interpolationmode sample-hold
attr recordingmode vector
attr source "warmup(atomic(constant0(packetPushEnded) + sum(packetLength(packetPushStarted)) - sum(packetLength(packetPulled)) - sum(packetLength(packetRemoved)) - sum(packetLength(packetDropped))))"
attr title "queue bit length"
attr unit b
37	345099 21215 0 32232 0 2.998746666666 793 0 3040 71616 100215936
37	1831124 515 32297 33005 3.003306666667 3.083306666667 19 0 168 168 28224
37	1872424 54 33041 33092 3.088746666666 3.093306666667 2 0 0 0 0
37	1876127 27 33129 33129 3.098746666666 3.098746666666 1 0 0 0 0
37	1878224 27 33182 33182 3.103306666667 3.103306666667 1 0 0 0 0
37	3835797 153798 33223 266723 3.108746666666 28.670919999999 5399 0 1280 53024 43359232
37	18004300 130742 266756 461556 28.673306666667 49.998746666666 4502 0 1280 43024 34788992
vector 38 RSVPTE4.LSR4.ppp[1].ppp transmissionState:vector ETV
attr interpolationmode sample-hold
attr recordingmode vector
attr source transmissionStateChanged
attr title "tx state"
38	366314 38800 0 32232 0 2.998746666666 1456 0 1 728 728
38	1831639 999 32255 33016 3.000919999999 3.085533333334 37 0 1 18 18
38	1872478 81 33041 33092 3.088746666666 3.093306666667 3 0 1 2 2
38	1876154 54 33099 33129 3.095533333334 3.098746666666 2 0 1 1 1
38	1878251 54 33148 33182 3.100919999999 3.103306666667 2 0 1 1 1
38	3989595 298358 33189 266725 3.105533333334 28.671293333332 10493 0 1 5246 5246
38	18135042 253691 266756 461556 28.673306666667 49.998746666666 8751 0 1 4376 4376
vector 39 RSVPTE4.LSR4.ppp[2].queue queueLength:vector ETV
attr autoWarmupFilter false
attr interpolationmode sample-hold
attr recordingmode vector
attr source "warmup(atomic(constant0(packetPushEnded) + count(packetPushStarted) - count(packetPulled) - count(packetRemoved) - count(packetDropped)))"
attr title "queue length"
attr unit pk
39	405114 1210 0 30442 0 2.801239999998 50 0 2 7 9
39	1832638 27 32264 32264 3.001239999998 3.001239999998 1 0 0 0 0
39	4287953 3641 34088 266120 3.201239999998 28.601239999998 128 0 0 0 0
39	18388733 3074 267942 459766 28.801239999998 49.801239999998 106 0 0 0 0
vector 40 RSVPTE4.LSR4.ppp[2].queue queueBitLength:vector ETV
attr autoWarmupFilter false
attr interpolationmode sample-hold
attr recordingmode vector
attr source "warmup(atomic(constant0(packetPushEnded) + sum(packetLength(packetPushStarted)) - sum(packetLength(packetPulled)) - sum(packetLength(packetRemoved)) - sum(packetLength(packetDropped))))"
attr title "queue bit length"
attr unit b
40	406324 1224 0 30442 0 2.801239999998 50 0 1568 5416 6278720
40	1832665 27 32264 32264 3.001239999998 3.001239999998 1 0 0 0 0
40	4291594 3641 34088 266120 3.201239999998 28.601239999998 128 0 0 0 0
40	18391807 3074 267942 459766 28.801239999998 49.801239999998 106 0 0 0 0
vector 41 RSVPTE4.LSR4.ppp[2].ppp transmissionState:vector ETV
attr interpolationmode sample-hold
attr recordingmode vector
attr source transmissionStateChanged
attr title "tx state"
41	407548 2076 0 30448 0 2.801613333331 81 0 1 40 40
41	1832692 54 32264 32270 3.001239999998 3.001613333331 2 0 1 1 1
41	4295235 7282 34088 266126 3.201239999998 28.601613333331 256 0 1 128 128
41	18394881 6148 267942 459772 28.801239999998 49.801613333331 212 0 1 106 106
vector 42 RSVPTE4.LSR5.ppp[0].queue queueLength:vector ETV
attr autoWarmupFilter false
attr interpolationmode sample-hold
attr recordingmode vector
attr source "warmup(atomic(constant0(packetPushEnded) + count(packetPushStarted) - count(packetPulled) - count(packetRemoved) - count(packetDropped)))"
attr title "queue length"
attr unit pk
42	409624 961 0 31103 0 2.876005161161 40 0 2 7 9
42	1832746 27 32925 32925 3.076005161161 3.076005161161 1 0 0 0 0
42	4302517 3721 34749 264959 3.276005161161 28.476005161161 132 0 0 0 0
42	18401029 3191 266781 460427 28.676005161161 49.876005161161 111 0 0 0 0
vector 43 RSVPTE4.LSR5.ppp[0].queue queueBitLength:vector ETV
attr autoWarmupFilter false
attr interpolationmode sample-hold
attr recordingmode vector
attr source "warmup(atomic(constant0(packetPushEnded) + sum(packetLength(packetPushStarted)) - sum(packetLength(packetPulled)) - sum(packetLength(packetRemoved)) - sum(packetLength(packetDropped))))"
attr title "queue bit length"
attr unit b
43	410585 976 0 31103 0 2.876005161161 40 0 2624 6888 11439680
43	1832773 27 32925 32925 3.076005161161 3.076005161161 1 0 0 0 0
43	4306238 3721 34749 264959 3.276005161161 28.476005161161 132 0 0 0 0
43	18404220 3191 266781 460427 28.676005161161 49.876005161161 111 0 0 0 0
vector 44 RSVPTE4.LSR5.ppp[0].ppp transmissionState:vector ETV
attr interpolationmode sample-hold
attr recordingmode vector
attr source transmissionStateChanged
attr title "tx state"
44	411561 1576 0 31116 0 2.876378494494 61 0 1 30 30
44	1832800 54 32925 32938 3.076005161161 3.076378494494 2 0 1 1 1
44	4309959 7437 34749 264972 3.276005161161 28.476378494494 264 0 1 132 132
44	18407411 6378 266781 460440 28.676005161161 49.876378494494 222 0 1 111 111
vector 45 RSVPTE4.LSR5.ppp[1].queue queueLength:vector ETV
attr autoWarmupFilter false
attr interpolationmode sample-hold
attr recordingmode vector
attr source "warmup(atomic(constant0(packetPushEnded) + count(packetPushStarted) - count(packetPulled) - count(packetRemoved) - count(packetDropped)))"
attr title "queue length"
attr unit pk
45	413137 29070 0 32209 0 2.996026666667 1091 0 1 213 213
45	1832854 972 32250 33023 3.000533333334 3.086026666667 36 0 1 9 9
45	1872559 54 33059 33097 3.090533333334 3.093853333334 2 0 0 0 0
45	1876208 54 33104 33106 3.095919999999 3.096026666667 2 0 1 1 1
45	1878305 27 33147 33147 3.100533333334 3.100533333334 1 0 0 0 0
45	4317396 291480 33187 266718 3.103853333334 28.670533333334 10253 0 1 2582 2582
45	18413789 247851 266761 461533 28.673853333334 49.996026666667 8551 0 1 2153 2153
vector 46 RSVPTE4.LSR5.ppp[1].queue queueBitLength:vector ETV
attr autoWarmupFilter false
attr interpolationmode sample-hold
attr recordingmode vector
attr source "warmup(atomic(constant0(packetPushEnded) + sum(packetLength(packetPushStarted)) - sum(packetLength(packetPulled)) - sum(packetLength(packetRemoved)) - sum(packetLength(packetDropped))))"
attr title "queue bit length"
attr unit b
46	442207 29709 0 32209 0 2.996026666667 1091 0 1248 265824 331748352
46	1833826 999 32250 33023 3.000533333334 3.086026666667 36 0 1248 11232 14017536
46	1872613 54 33059 33097 3.090533333334 3.093853333334 2 0 0 0 0
46	1876262 57 33104 33106 3.095919999999 3.096026666667 2 0 1248 1248 1557504
46	1878332 27 33147 33147 3.100533333334 3.100533333334 1 0 0 0 0
46	4608876 299226 33187 266718 3.103853333334 28.670533333334 10253 0 1248 3222336 4021475328
46	18661640 254310 266761 461533 28.673853333334 49.996026666667 8551 0 1248 2686944 3353306112
vector 47 RSVPTE4.LSR5.ppp[1].ppp transmissionState:vector ETV
attr interpolationmode sample-hold
attr recordingmode vector
attr source transmissionStateChanged
attr title "tx state"
47	471916 45205 0 32223 0 2.9982 1747 0 1 873 873
47	1834825 1367 32250 33023 3.000533333334 3.086026666667 53 0 1 27 27
47	1872667 100 33032 33097 3.0882 3.093853333334 4 0 1 2 2
47	1876319 73 33106 33120 3.096026666667 3.0982 3 0 1 1 1
47	1878359 54 33147 33176 3.100533333334 3.102706666667 2 0 1 1 1
47	4908102 415893 33187 266750 3.103853333334 28.672706666667 15342 0 1 7671 7671